 Lammps description
 
   8000       atoms
   7984       bonds
   7968      angles
   7952   dihedrals
 
 5       atom types
 1       bond types
 3      angle types
 3   dihedral types
 
0.0   62.211  xlo xhi
0.0   62.211  ylo yhi
0.0   62.211  zlo zhi
 
 Masses
 
1  12
2  13
3  14
4  15
5  16
 
 Bond Coeffs
 
1  96.018   1.540
 
 Angle Coeffs
 
1  62.188  114.0
2  62.188  112.0
3  62.188  109.5
 
 Dihedral Coeffs
 
1   2.010 -4.017  0.271  6.299  0.000
2   0.918 -2.753  0.000  3.672  0.000
3   0.786 -1.779  0.444  3.508  0.000
 
 Atoms
 
     1   1  4      0.0000     44.7941818237304688    45.5457801818847656     2.2853710651397705
     2   1  3      0.0000     43.5307197570800781    45.4414863586425781     3.1596660614013672
     3   1  3      0.0000     43.9822540283203125    45.9824829101562500     4.5289878845214844
     4   1  3      0.0000     44.9228363037109375    47.1990890502929688     4.4467420578002930
     5   1  3      0.0000     45.7021141052246094    47.5789527893066406     5.7195482254028320
     6   1  3      0.0000     46.8340301513671875    48.5850448608398438     5.4400038719177246
     7   1  3      0.0000     48.1026802062988281    48.3037261962890625     4.6135749816894531
     8   1  3      0.0000     49.2690544128417969    49.3081245422363281     4.5650501251220703
     9   1  3      0.0000     48.8750343322753906    50.5737533569335938     3.7811310291290283
    10   1  3      0.0000     49.9725456237792969    51.4018859863281250     3.0873999595642090
    11   1  3      0.0000     51.3951454162597656    51.4092864990234375     3.6771099567413330
    12   1  3      0.0000     52.2273445129394531    52.5396575927734375     3.0436229705810547
    13   1  3      0.0000     52.9324455261230469    51.9858474731445313     1.7915320396423340
    14   1  3      0.0000     53.4696769714355469    50.5426292419433594     1.8015890121459961
    15   1  3      0.0000     53.8116912841796875    50.0065956115722656     0.3989880084991455
    16   1  3      0.0000     53.9215774536132813    48.4710998535156250     0.4411300122737885
    17   1  3      0.0000     54.7637405395507813    48.0919113159179688     1.6734369993209839
    18   1  3      0.0000     55.0594558715820313    46.5806617736816406     1.6568260192871094
    19   1  3      0.0000     56.1630363464355469    46.0103454589843750     2.5670149326324463
    20   1  3      0.0000     56.4704704284667969    44.5098152160644531     2.4073479175567627
    21   1  3      0.0000     57.9313125610351563    44.1959419250488281     2.7802081108093262
    22   1  3      0.0000     58.0854873657226563    42.8120918273925781     3.4380729198455811
    23   1  3      0.0000     59.5362625122070313    42.3035926818847656     3.5290908813476562
    24   1  3      0.0000     59.7283973693847656    40.9575843811035156     4.2522392272949219
    25   1  3      0.0000     59.3447570800781250    40.8004341125488281     5.7353849411010742
    26   1  3      0.0000     59.1739845275878906    39.3783531188964844     6.3011770248413086
    27   1  3      0.0000     59.0242767333984375    39.1789245605468750     7.8208532333374023
    28   1  3      0.0000     60.1707153320312500    39.8213119506835938     8.6237306594848633
    29   1  3      0.0000     59.9626121520996094    39.7548789978027344    10.1481580734252930
    30   1  3      0.0000     59.6369400024414063    38.3191146850585938    10.5999584197998047
    31   1  3      0.0000     59.4852867126464844    38.1164245605468750    12.1190099716186523
    32   1  3      0.0000     59.4735794067382813    36.6456604003906250    12.5754241943359375
    33   1  3      0.0000     58.3621520996093750    36.3529968261718750    13.6004524230957031
    34   1  3      0.0000     58.2488517761230469    34.8684997558593750    13.9941864013671875
    35   1  3      0.0000     59.4933166503906250    34.0972442626953125    14.4717512130737305
    36   1  3      0.0000     59.3083610534667969    32.5758438110351563    14.6225233078002930
    37   1  3      0.0000     59.1648521423339844    31.9635467529296875    13.2167863845825195
    38   1  3      0.0000     58.2696495056152344    30.7240180969238281    13.0329990386962891
    39   1  3      0.0000     58.3890953063964844    30.2270259857177734    11.5803003311157227
    40   1  3      0.0000     57.4239082336425781    29.1690673828125000    11.0139598846435547
    41   1  3      0.0000     57.7812881469726563    27.7683124542236328    11.5447731018066406
    42   1  3      0.0000     56.8183631896972656    26.7255592346191406    10.9472417831420898
    43   1  3      0.0000     57.1196250915527344    26.2210731506347656     9.5237474441528320
    44   1  3      0.0000     55.9454269409179688    25.4986839294433594     8.8374462127685547
    45   1  3      0.0000     55.4297065734863281    24.3797149658203125     9.7613220214843750
    46   1  3      0.0000     54.2090072631835938    23.5973129272460938     9.2423496246337891
    47   1  3      0.0000     54.1858825683593750    23.0442581176757813     7.8052711486816406
    48   1  3      0.0000     52.7524108886718750    22.8479003906250000     7.2778210639953613
    49   1  3      0.0000     52.7975425720214844    22.4580860137939453     5.7886571884155273
    50   1  3      0.0000     53.1779556274414063    21.0137329101562500     5.4135189056396484
    51   1  3      0.0000     53.1377449035644531    20.6643943786621094     3.9142050743103027
    52   1  3      0.0000     51.6663093566894531    20.7826519012451172     3.4754629135131836
    53   1  3      0.0000     51.4626541137695313    20.0336971282958984     2.1453540325164795
    54   1  3      0.0000     50.1032981872558594    19.9744415283203125     1.4240759611129761
    55   1  3      0.0000     50.1314048767089844    19.8232269287109375    62.1027793884277344
    56   1  3      0.0000     50.7870521545410156    20.9317131042480469    61.2583961486816406
    57   1  3      0.0000     51.0117149353027344    20.6368522644042969    59.7636795043945313
    58   1  3      0.0000     51.5122375488281250    21.7411994934082031    58.8142051696777344
    59   1  3      0.0000     50.4853172302246094    22.8507919311523438    59.1071853637695313
    60   1  3      0.0000     50.9882469177246094    24.2446422576904297    58.6878547668457031
    61   1  3      0.0000     51.4876136779785156    24.5572528839111328    57.2650032043457031
    62   1  3      0.0000     51.5211372375488281    26.0218486785888672    56.7901992797851563
    63   1  3      0.0000     52.2209892272949219    26.3409805297851563    55.4560470581054688
    64   1  3      0.0000     51.4597778320312500    26.2243881225585938    54.1224212646484375
    65   1  3      0.0000     51.9629592895507813    26.8137760162353516    52.7916221618652344
    66   1  3      0.0000     50.9575119018554688    27.5564022064208984    51.8920745849609375
    67   1  3      0.0000     49.5770530700683594    27.0046386718750000    51.4902191162109375
    68   1  3      0.0000     48.7097930908203125    27.9495029449462891    50.6377601623535156
    69   1  3      0.0000     47.1902809143066406    27.7796611785888672    50.8216819763183594
    70   1  3      0.0000     46.4001617431640625    28.5426692962646484    49.7422676086425781
    71   1  3      0.0000     46.6448097229003906    28.1184921264648438    48.2821922302246094
    72   1  3      0.0000     46.0864639282226563    26.7821350097656250    47.7587432861328125
    73   1  3      0.0000     46.5996589660644531    26.2390727996826172    46.4121475219726563
    74   1  3      0.0000     45.9778327941894531    24.8771724700927734    46.0513687133789063
    75   1  3      0.0000     46.4700012207031250    24.4386634826660156    44.6595802307128906
    76   1  3      0.0000     45.8110198974609375    23.1101016998291016    44.2445259094238281
    77   1  3      0.0000     44.3356094360351563    23.2271881103515625    44.6700210571289063
    78   1  3      0.0000     43.4670906066894531    22.0293178558349609    44.2429580688476563
    79   1  3      0.0000     43.4275512695312500    21.5767040252685547    42.7715034484863281
    80   1  3      0.0000     42.7742576599121094    22.3987445831298828    41.6449813842773438
    81   1  3      0.0000     43.2469940185546875    22.1368885040283203    40.2029151916503906
    82   1  3      0.0000     44.7291069030761719    22.5486259460449219    40.1292762756347656
    83   1  3      0.0000     45.1354675292968750    22.8891487121582031    38.6834144592285156
    84   1  3      0.0000     46.5889167785644531    22.5426406860351563    38.3105659484863281
    85   1  3      0.0000     47.6117973327636719    23.4835472106933594    38.9738998413085938
    86   1  3      0.0000     49.0245513916015625    23.0352668762207031    38.5558357238769531
    87   1  3      0.0000     49.9608078002929688    24.2466964721679688    38.7215576171875000
    88   1  3      0.0000     51.1825256347656250    24.0135440826416016    37.8134574890136719
    89   1  3      0.0000     52.2292900085449219    23.1654834747314453    38.5595664978027344
    90   1  3      0.0000     53.6307601928710938    23.7980461120605469    38.6452674865722656
    91   1  3      0.0000     54.3187561035156250    23.4993076324462891    39.9902610778808594
    92   1  3      0.0000     55.7498970031738281    24.0668125152587891    39.9531288146972656
    93   1  3      0.0000     56.4740943908691406    23.1375255584716797    38.9613838195800781
    94   1  3      0.0000     57.9570350646972656    23.4709434509277344    38.7137451171875000
    95   1  3      0.0000     58.6697082519531250    22.4459877014160156    37.8119926452636719
    96   1  3      0.0000     57.8504028320312500    22.2005329132080078    36.5313301086425781
    97   1  3      0.0000     58.3493728637695313    21.0187778472900391    35.6792259216308594
    98   1  3      0.0000     57.4223289489746094    21.0492725372314453    34.4498939514160156
    99   1  3      0.0000     57.3306694030761719    22.4259738922119141    33.7658653259277344
   100   1  3      0.0000     56.3065643310546875    22.5703964233398438    32.6248359680175781
   101   1  3      0.0000     55.6108512878417969    23.9442749023437500    32.6182022094726563
   102   1  3      0.0000     54.9849052429199219    24.0716762542724609    34.0194740295410156
   103   1  3      0.0000     54.7885246276855469    25.5007419586181641    34.5587348937988281
   104   1  3      0.0000     56.0722770690917969    26.1288585662841797    35.1323661804199219
   105   1  3      0.0000     56.2722930908203125    27.6274356842041016    34.8393440246582031
   106   1  3      0.0000     56.3528747558593750    27.6586265563964844    33.3017730712890625
   107   1  3      0.0000     56.4383888244628906    29.0134029388427734    32.5745353698730469
   108   1  3      0.0000     56.4436607360839844    28.9445762634277344    31.0360851287841797
   109   1  3      0.0000     56.8765449523925781    30.2796459197998047    30.4022083282470703
   110   1  3      0.0000     55.8276634216308594    31.3980255126953125    30.5460090637207031
   111   1  3      0.0000     56.0796432495117188    32.5041809082031250    29.5046024322509766
   112   1  3      0.0000     57.2791748046875000    33.3988990783691406    29.8681945800781250
   113   1  3      0.0000     57.4452095031738281    34.4788589477539063    28.7829685211181641
   114   1  3      0.0000     58.2829856872558594    35.6193656921386719    29.3903999328613281
   115   1  3      0.0000     58.5627250671386719    36.8838768005371094    28.5571193695068359
   116   1  3      0.0000     59.4038543701171875    38.0658302307128906    29.0739307403564453
   117   1  3      0.0000     58.5803108215332031    39.3613891601562500    29.1960048675537109
   118   1  3      0.0000     59.4977722167968750    40.5944862365722656    29.2926788330078125
   119   1  3      0.0000     60.2308425903320313    40.8737678527832031    30.6178989410400391
   120   1  3      0.0000     61.0652732849121094    42.1180496215820313    30.2614135742187500
   121   1  3      0.0000     61.5914916992187500    42.7745056152343750    31.5512828826904297
   122   1  3      0.0000      0.5043749809265137    42.1780776977539063    32.4188919067382813
   123   1  3      0.0000      1.1961319446563721    43.0733718872070313    33.4636459350585938
   124   1  3      0.0000      2.1803081035614014    44.2074203491210938    33.1216850280761719
   125   1  3      0.0000      2.8170180320739746    44.9097175598144531    34.3353500366210938
   126   1  3      0.0000      3.6077630519866943    46.1879158020019531    33.9998931884765625
   127   1  3      0.0000      4.3140411376953125    47.0977058410644531    35.0221710205078125
   128   1  3      0.0000      3.3959000110626221    47.5816230773925781    36.1599082946777344
   129   1  3      0.0000      4.1097168922424316    48.1391716003417969    37.4053802490234375
   130   1  3      0.0000      3.2404589653015137    48.8181381225585938    38.4800872802734375
   131   1  3      0.0000      2.6045989990234375    50.1735610961914063    38.1193733215332031
   132   1  3      0.0000      1.9823420047760010    50.9517517089843750    39.2936058044433594
   133   1  3      0.0000      0.7899209856987000    50.1797409057617188    39.8883552551269531
   134   1  3      0.0000     61.6956634521484375    50.3555145263671875    39.0902366638183594
   135   1  3      0.0000     60.4928703308105469    49.6796302795410156    39.7743911743164063
   136   1  3      0.0000     60.3593559265136719    48.1488571166992188    39.6718940734863281
   137   1  3      0.0000     59.1702804565429688    47.6347312927246094    40.5045890808105469
   138   1  3      0.0000     57.8261642456054688    47.8132209777832031    39.7744560241699219
   139   1  3      0.0000     56.7330741882324219    46.8772430419921875    40.3228225708007813
   140   1  3      0.0000     55.3666152954101563    47.1952819824218750    39.6878128051757813
   141   1  3      0.0000     55.0394477844238281    48.6995887756347656    39.6475868225097656
   142   1  3      0.0000     53.8546295166015625    49.2007179260253906    38.8010253906250000
   143   1  3      0.0000     53.6487274169921875    50.7266387939453125    38.8288116455078125
   144   1  3      0.0000     53.0978431701660156    51.1095848083496094    40.2149848937988281
   145   1  3      0.0000     51.8034286499023438    50.4341926574707031    40.7048225402832031
   146   1  3      0.0000     51.5001487731933594    50.2161712646484375    42.1988410949707031
   147   1  3      0.0000     51.5006179809570313    51.5622444152832031    42.9469642639160156
   148   1  3      0.0000     51.0473442077636719    51.4468498229980469    44.4142189025878906
   149   1  3      0.0000     49.5485343933105469    51.2039146423339844    44.6714172363281250
   150   1  3      0.0000     49.1848945617675781    51.4666938781738281    46.1446151733398438
   151   1  3      0.0000     47.7323036193847656    51.3792228698730469    46.6485252380371094
   152   1  3      0.0000     47.4392585754394531    52.1240501403808594    47.9641838073730469
   153   1  3      0.0000     45.9848976135253906    52.0118789672851563    48.4580001831054688
   154   1  3      0.0000     45.7916221618652344    52.9335021972656250    49.6765480041503906
   155   1  3      0.0000     46.8095397949218750    52.4969635009765625    50.7465400695800781
   156   1  3      0.0000     46.6103134155273438    53.3204841613769531    52.0325088500976563
   157   1  3      0.0000     47.2553787231445313    54.7186508178710938    52.0575332641601563
   158   1  3      0.0000     47.0175590515136719    55.1978721618652344    53.5016212463378906
   159   1  3      0.0000     45.5917320251464844    55.6361312866210938    53.8844261169433594
   160   1  3      0.0000     45.4074821472167969    55.6647644042968750    55.4130973815917969
   161   1  3      0.0000     43.9861297607421875    56.0885353088378906    55.8275451660156250
   162   1  3      0.0000     42.7521362304687500    55.3062477111816406    55.3408279418945313
   163   1  3      0.0000     41.4666481018066406    56.0052528381347656    55.8209457397460938
   164   1  3      0.0000     41.3939476013183594    57.5368690490722656    55.6778793334960938
   165   1  3      0.0000     39.9380416870117188    57.9197273254394531    56.0024681091308594
   166   1  3      0.0000     39.7471313476562500    59.3717422485351563    55.5262184143066406
   167   1  3      0.0000     40.5639572143554688    60.3827018737792969    56.3522605895996094
   168   1  3      0.0000     40.6951522827148438    61.7129554748535156    55.5875282287597656
   169   1  3      0.0000     41.2842941284179688     0.6512950062751770    56.4262847900390625
   170   1  3      0.0000     40.8507308959960938     0.3601419925689697    57.8750267028808594
   171   1  3      0.0000     41.7637100219726563     1.2303550243377686    58.7586517333984375
   172   1  3      0.0000     41.3144645690917969     1.1971290111541748    60.2312927246093750
   173   1  3      0.0000     40.0615005493164063     2.0297911167144775    60.5604629516601563
   174   1  3      0.0000     38.6424942016601563     1.4514900445938110    60.4068603515625000
   175   1  3      0.0000     37.4326133728027344     2.4001150131225586    60.4957008361816406
   176   1  3      0.0000     36.0734519958496094     1.7731269598007202    60.1335334777832031
   177   1  3      0.0000     34.8646392822265625     2.6919069290161133    59.8762130737304688
   178   1  3      0.0000     33.6175498962402344     1.8676279783248901    59.5061607360839844
   179   1  3      0.0000     32.5193939208984375     2.6603019237518311    58.7731399536132813
   180   1  3      0.0000     31.3733577728271484     1.7875490188598633    58.2286186218261719
   181   1  3      0.0000     30.9272232055664063     0.8326230049133301    59.3514175415039063
   182   1  3      0.0000     29.6109199523925781     0.1307349950075150    58.9689216613769531
   183   1  3      0.0000     29.1859569549560547    61.2080688476562500    59.9206581115722656
   184   1  3      0.0000     30.2087211608886719    60.0585441589355469    59.8562393188476563
   185   1  3      0.0000     29.7149925231933594    58.8188095092773438    60.6249275207519531
   186   1  3      0.0000     28.2585601806640625    58.4322929382324219    60.3071098327636719
   187   1  3      0.0000     27.6510620117187500    57.1815032958984375    60.9689826965332031
   188   1  3      0.0000     26.1773204803466797    56.9151077270507813    60.6102066040039063
   189   1  3      0.0000     25.6885108947753906    55.8056755065917969    61.5598449707031250
   190   1  3      0.0000     24.8467655181884766    56.2934341430664063     0.5426399707794189
   191   1  3      0.0000     25.3688964843750000    57.4415168762207031     1.4263169765472412
   192   1  3      0.0000     24.7112503051757813    57.6187362670898438     2.8075089454650879
   193   1  3      0.0000     25.5811901092529297    57.0164833068847656     3.9264810085296631
   194   1  3      0.0000     25.0275058746337891    57.2268753051757813     5.3480181694030762
   195   1  3      0.0000     25.3062152862548828    55.9705123901367188     6.1938729286193848
   196   1  3      0.0000     25.4047412872314453    56.1244277954101563     7.7229909896850586
   197   1  3      0.0000     25.6394004821777344    54.7527885437011719     8.3826408386230469
   198   1  3      0.0000     26.0268669128417969    55.0747566223144531     9.8379087448120117
   199   1  3      0.0000     25.9375000000000000    53.9426231384277344    10.8780450820922852
   200   1  3      0.0000     26.0694770812988281    54.4596481323242188    12.3226442337036133
   201   1  3      0.0000     26.1768131256103516    53.2590904235839844    13.2811517715454102
   202   1  3      0.0000     26.9677753448486328    53.6591911315917969    14.5404758453369141
   203   1  3      0.0000     26.9776000976562500    52.7118797302246094    15.7546005249023438
   204   1  3      0.0000     27.6051292419433594    53.3990173339843750    16.9816493988037109
   205   1  3      0.0000     26.7090206146240234    54.4142684936523438    17.7150363922119141
   206   1  3      0.0000     27.5763778686523438    55.2925300598144531    18.6358776092529297
   207   1  3      0.0000     28.1308975219726563    56.4919319152832031    17.8449649810791016
   208   1  3      0.0000     29.4231128692626953    57.1053237915039063    18.4155178070068359
   209   1  3      0.0000     30.6426258087158203    56.3671722412109375    17.8328361511230469
   210   1  3      0.0000     31.9070873260498047    56.8338775634765625    18.5777702331542969
   211   1  3      0.0000     33.1363983154296875    56.0415039062500000    18.0955524444580078
   212   1  3      0.0000     34.4541778564453125    56.4176406860351563    18.7981033325195313
   213   1  3      0.0000     34.7554321289062500    55.9388580322265625    20.2304496765136719
   214   1  3      0.0000     35.0755653381347656    54.4326210021972656    20.2112731933593750
   215   1  3      0.0000     35.2395362854003906    54.1886520385742188    21.7229576110839844
   216   1  3      0.0000     34.0777511596679688    54.5019111633300781    22.6840610504150391
   217   1  3      0.0000     34.4608154296875000    53.9550743103027344    24.0718059539794922
   218   1  3      0.0000     33.6452140808105469    54.5866584777832031    25.2152671813964844
   219   1  3      0.0000     33.5658798217773438    56.1231117248535156    25.2831516265869141
   220   1  3      0.0000     34.8874320983886719    56.8911018371582031    25.0952892303466797
   221   1  3      0.0000     35.9553985595703125    56.3409767150878906    26.0588302612304688
   222   1  3      0.0000     37.2936515808105469    57.1006240844726563    26.1189231872558594
   223   1  3      0.0000     38.3901634216308594    56.4105682373046875    25.2864112854003906
   224   1  3      0.0000     38.8764343261718750    55.1910743713378906    26.0913829803466797
   225   1  3      0.0000     40.2000427246093750    54.5962219238281250    25.5758228302001953
   226   1  3      0.0000     40.8374557495117188    53.5550842285156250    26.5146217346191406
   227   1  3      0.0000     40.6334075927734375    52.0910835266113281    26.0825691223144531
   228   1  3      0.0000     41.4021072387695313    51.0261688232421875    26.8867206573486328
   229   1  3      0.0000     40.9554862976074219    49.6010437011718750    26.5110130310058594
   230   1  3      0.0000     41.7068023681640625    48.6118888854980469    27.4213371276855469
   231   1  3      0.0000     41.7067604064941406    49.0566406250000000    28.8957176208496094
   232   1  3      0.0000     40.3227081298828125    49.0638847351074219    29.5709552764892578
   233   1  3      0.0000     40.4976272583007813    48.9209213256835938    31.0942955017089844
   234   1  3      0.0000     39.2839126586914063    49.5277099609375000    31.8225154876708984
   235   1  3      0.0000     39.4253540039062500    49.5846252441406250    33.3549499511718750
   236   1  3      0.0000     40.6020431518554688    50.4176406860351563    33.8963317871093750
   237   1  3      0.0000     40.5272483825683594    51.9472236633300781    33.7338905334472656
   238   1  3      0.0000     41.5440444946289063    52.6587371826171875    34.6457443237304688
   239   1  3      0.0000     41.4312324523925781    54.1714973449707031    34.9111289978027344
   240   1  3      0.0000     40.0210456848144531    54.4289588928222656    35.4738845825195313
   241   1  3      0.0000     39.5660743713378906    55.8804855346679688    35.7140350341796875
   242   1  3      0.0000     38.0502204895019531    56.0932273864746094    35.8829345703125000
   243   1  3      0.0000     37.6618614196777344    57.5832672119140625    35.9064979553222656
   244   1  3      0.0000     37.9250106811523438    58.3651618957519531    34.6061172485351563
   245   1  3      0.0000     37.8570137023925781    59.8949165344238281    34.7698936462402344
   246   1  3      0.0000     37.6993598937988281    60.8479995727539063    33.5705718994140625
   247   1  3      0.0000     37.2075424194335938     0.0348769985139370    33.9896697998046875
   248   1  3      0.0000     35.8056449890136719    62.1804046630859375    34.6236953735351563
   249   1  3      0.0000     35.2545967102050781     1.3603090047836304    34.9888153076171875
   250   1  3      0.0000     34.7737655639648438     2.1568050384521484    33.7616271972656250
   251   1  3      0.0000     33.7584686279296875     1.3965909481048584    32.8882179260253906
   252   1  3      0.0000     32.3358192443847656     1.7562559843063354    33.3554611206054688
   253   1  3      0.0000     31.2393760681152344     0.9179199934005737    32.6723747253417969
   254   1  3      0.0000     30.0224399566650391     0.8094649910926819    33.6098747253417969
   255   1  3      0.0000     28.9076843261718750    62.0657997131347656    33.1434822082519531
   256   1  3      0.0000     29.3149032592773438    60.6454772949218750    32.7093658447265625
   257   1  3      0.0000     28.3926410675048828    59.8039131164550781    31.8078079223632813
   258   1  3      0.0000     28.8684635162353516    58.3426055908203125    31.7089805603027344
   259   1  3      0.0000     28.7437725067138672    57.4748344421386719    32.9750900268554688
   260   1  3      0.0000     29.1925201416015625    56.0470161437988281    32.6123809814453125
   261   1  3      0.0000     28.4999198913574219    55.6128921508789063    31.3072185516357422
   262   1  3      0.0000     29.2611904144287109    54.4797554016113281    30.5944290161132813
   263   1  3      0.0000     28.7686748504638672    54.4390296936035156    29.1358776092529297
   264   1  3      0.0000     28.8842334747314453    55.8305435180664063    28.4863109588623047
   265   1  3      0.0000     28.1330242156982422    56.0497512817382813    27.1599502563476563
   266   1  3      0.0000     28.7618618011474609    55.2117156982421875    26.0312976837158203
   267   1  3      0.0000     27.9588661193847656    54.8616943359375000    24.7646961212158203
   268   1  3      0.0000     26.4375019073486328    54.6665916442871094    24.9024887084960938
   269   1  3      0.0000     25.8280391693115234    54.6963424682617188    23.4885330200195313
   270   1  3      0.0000     26.3035316467285156    53.5589790344238281    22.5655460357666016
   271   1  3      0.0000     25.4995918273925781    52.2679939270019531    22.8077087402343750
   272   1  3      0.0000     26.1808032989501953    51.0867195129394531    22.0920696258544922
   273   1  3      0.0000     26.4843444824218750    51.5022277832031250    20.6405830383300781
   274   1  3      0.0000     25.4599781036376953    51.2747917175292969    19.5133972167968750
   275   1  3      0.0000     24.6605339050292969    49.9848594665527344    19.7752494812011719
   276   1  3      0.0000     24.6922111511230469    48.8153762817382813    18.7737998962402344
   277   1  3      0.0000     23.8226032257080078    47.5756835937500000    19.0540637969970703
   278   1  3      0.0000     22.3303165435791016    47.5395698547363281    18.6754169464111328
   279   1  3      0.0000     21.6487941741943359    46.2801895141601563    19.2420692443847656
   280   1  3      0.0000     21.4051380157470703    46.1139717102050781    20.7535591125488281
   281   1  3      0.0000     20.4991226196289063    47.2073516845703125    21.3495960235595703
   282   1  3      0.0000     20.3592052459716797    47.1959648132324219    22.8831844329833984
   283   1  3      0.0000     19.1910381317138672    48.1431884765625000    23.2144851684570313
   284   1  3      0.0000     19.2831363677978516    49.5851821899414063    22.6817855834960938
   285   1  3      0.0000     20.1866073608398438    50.4595603942871094    23.5710563659667969
   286   1  3      0.0000     20.1320552825927734    50.5093498229980469    25.1092853546142578
   287   1  3      0.0000     21.1344776153564453    51.4320373535156250    25.8271923065185547
   288   1  3      0.0000     21.2022132873535156    51.4358177185058594    27.3656978607177734
   289   1  3      0.0000     21.7739582061767578    52.7903938293457031    27.8237686157226563
   290   1  3      0.0000     21.9555873870849609    52.8755912780761719    29.3506450653076172
   291   1  3      0.0000     22.5963726043701172    54.1101188659667969    30.0116539001464844
   292   1  3      0.0000     22.5743465423583984    53.7073173522949219    31.4978790283203125
   293   1  3      0.0000     21.1871414184570313    53.8383293151855469    32.1536979675292969
   294   1  3      0.0000     21.1706790924072266    53.5777091979980469    33.6713943481445313
   295   1  3      0.0000     21.1474704742431641    52.1070747375488281    34.1277923583984375
   296   1  3      0.0000     20.2570171356201172    51.1529884338378906    33.3102302551269531
   297   1  3      0.0000     20.3980045318603516    49.6341285705566406    33.5218582153320313
   298   1  3      0.0000     20.1119518280029297    48.8763542175292969    32.2120666503906250
   299   1  3      0.0000     18.8899478912353516    49.4352645874023438    31.4597854614257813
   300   1  3      0.0000     18.6043834686279297    48.4455146789550781    30.3150348663330078
   301   1  3      0.0000     18.6633243560791016    46.9946479797363281    30.8279762268066406
   302   1  3      0.0000     19.0258502960205078    45.9216041564941406    29.7845420837402344
   303   1  3      0.0000     20.1550064086914063    46.4813461303710938    28.8995037078857422